[{"color": "White", "formula": "Cd1I2", "band_gap": 3.19}, {"color": "Violet", "formula": "Zr1S2", "band_gap": 1.68}, {"color": "Light Gray", "formula": "Ga1Sb1", "band_gap": 0.812}, {"color": "Red", "formula": "P", "band_gap": 1.6}, {"color": "White", "formula": "Ca1Te1", "band_gap": 4.07}, {"color": "Yellow", "formula": "Fe1S2", "band_gap": 1.2}, {"color": "Dark Gray", "formula": "Al1Sb1", "band_gap": 1.6}, {"color": "Ocher", "formula": "Hf1S3", "band_gap": 2.85}, {"color": "Black", "formula": "In2Te3", "band_gap": 1.0}, {"color": "Black", "formula": "P", "band_gap": 0.33}, {"color": "Yellow", "formula": "Hg1O1", "band_gap": 1.02}, {"color": "White", "formula": "Sr1Se1", "band_gap": 4.45}, {"color": "Red", "formula": "Ga2Se3", "band_gap": 1.86}, {"color": "Dark Brown", "formula": "B1As1", "band_gap": 1.46}, {"color": "Yellow-White", "formula": "Ga2S3", "band_gap": 2.85}, {"color": "Dark Red", "formula": "Hf1Se2", "band_gap": 1.13}, {"color": "Dark Green", "formula": "Ni1O1", "band_gap": 3.7}, {"color": "Red", "formula": "Hg1O1", "band_gap": 1.18}, {"color": "Red", "formula": "In2S3", "band_gap": 2.03}, {"color": "Orange-Red", "formula": "As1Br3", "band_gap": 2.6}, {"color": "Yellow", "formula": "Hg1I2", "band_gap": 2.795}, {"color": "White", "formula": "Zn1S1", "band_gap": 3.73}, {"color": "Yellow", "formula": "Al1P1", "band_gap": 2.65}, {"color": "Yellow", "formula": "Pb1O1", "band_gap": 2.73}, {"color": "Black", "formula": "Ga2Te3", "band_gap": 1.5}, {"color": "Yellow", "formula": "Al2Te3", "band_gap": 2.2}, {"color": "Gray", "formula": "Sn1Se1", "band_gap": 1.2}, {"color": "Ocher", "formula": "Hf1S3", "band_gap": 2.8}, {"color": "Yellow", "formula": "Si1C1", "band_gap": 2.2}, {"color": "Bluish", "formula": "Mg2Sn1", "band_gap": 0.22}, {"color": "White", "formula": "Al2Se3", "band_gap": 3.1}, {"color": "White", "formula": "Pb1Te1", "band_gap": 0.185}, {"color": "White", "formula": "Al1N1", "band_gap": 5.88}, {"color": "Dark Red", "formula": "Hf1S2", "band_gap": 1.96}, {"color": "Black", "formula": "In1N1", "band_gap": 2.4}, {"color": "White", "formula": "Sr1Se1", "band_gap": 4.42}, {"color": "Gray", "formula": "Cd3As2", "band_gap": 0.425}, {"color": "Dark Gray", "formula": "In1As1", "band_gap": 0.35600000000000004}, {"color": "White", "formula": "La2O3", "band_gap": 1.05}, {"color": "White", "formula": "Be1O1", "band_gap": 11.6}, {"color": "Red", "formula": "Hg1I2", "band_gap": 2.095}, {"color": "Yellow", "formula": "Pb1O1", "band_gap": 2.86}, {"color": "Blue", "formula": "Y2O3", "band_gap": 5.6}, {"color": "Brown-Black", "formula": "Mn1Se1", "band_gap": 1.8}, {"color": "Dark Gray", "formula": "In1p1", "band_gap": 1.34}, {"color": "Yellow", "formula": "Sn1S2", "band_gap": 2.07}, {"color": "White", "formula": "Al1N1", "band_gap": 5.74}, {"color": "Yellow", "formula": "Cu1N3", "band_gap": 4.96}, {"color": "Red", "formula": "Ga2Se3", "band_gap": 2.05}, {"color": "Yellow", "formula": "Hg1I2", "band_gap": 3.045}, {"color": "Gray", "formula": "Ge1O2", "band_gap": 5.54}, {"color": "Yellow", "formula": "Pb1O1", "band_gap": 2.76}, {"color": "Yellow", "formula": "Pb1I2", "band_gap": 2.32}, {"color": "Gray", "formula": "Cd3As2", "band_gap": 0.53}, {"color": "Red", "formula": "B1P1", "band_gap": 2.0}, {"color": "White", "formula": "B1N1", "band_gap": 8.0}, {"color": "Copper-Red", "formula": "Zr1S3", "band_gap": 2.28}, {"color": "White", "formula": "Pb1Te1", "band_gap": 0.21}, {"color": "Red-Yellow", "formula": "La2S3", "band_gap": 1.32}, {"color": "Red", "formula": "Hg1I2", "band_gap": 2.33}, {"color": "Dark Gray", "formula": "Al1Sb1", "band_gap": 2.218}, {"color": "Dark Gray", "formula": "In1As1", "band_gap": 0.41}, {"color": "Red", "formula": "Hg1I2", "band_gap": 2.13}, {"color": "Red", "formula": "Pb1O1", "band_gap": 2.84}, {"color": "Brown", "formula": "Ca1S1", "band_gap": 5.38}, {"color": "Amber", "formula": "Ge1S2", "band_gap": 3.71}, {"color": "Red", "formula": "Hg1I2", "band_gap": 2.11}, {"color": "Yellow", "formula": "Hg1I2", "band_gap": 2.315}, {"color": "Gray", "formula": "Sn", "band_gap": 0.075}, {"color": "Dark Red", "formula": "Cd1P2", "band_gap": 2.02}, {"color": "Yellow", "formula": "Pb1O1", "band_gap": 2.66}, {"color": "White", "formula": "Zn1S1", "band_gap": 3.69}, {"color": "Yellow", "formula": "In2O3", "band_gap": 2.6189999999999998}, {"color": "Dark Gray", "formula": "In1As1", "band_gap": 0.40399999999999997}, {"color": "Gray", "formula": "Te1I1", "band_gap": 1.1}, {"color": "Yellow-Orange", "formula": "Ge1Se2", "band_gap": 2.485}, {"color": "Yellow", "formula": "Si1C1", "band_gap": 2.6}, {"color": "White", "formula": "Th1O2", "band_gap": 3.5}, {"color": "White", "formula": "Pb1Te1", "band_gap": 0.31}, {"color": "Yellow", "formula": "Al2Te3", "band_gap": 2.5}, {"color": "Gray", "formula": "Sn", "band_gap": 0.092}, {"color": "Dark Gray", "formula": "Al1Sb1", "band_gap": 1.62}, {"color": "Dark Gray", "formula": "Zr1Se3", "band_gap": 1.25}, {"color": "Yellow", "formula": "Pb1O1", "band_gap": 2.88}, {"color": "White", "formula": "Ca1O1", "band_gap": 6.1}, {"color": "Gray", "formula": "Pb1Se1", "band_gap": 0.165}, {"color": "Gray", "formula": "Pb1Se1", "band_gap": 0.17600000000000002}, {"color": "Red", "formula": "Zn1Te1", "band_gap": 2.385}, {"color": "Red", "formula": "P", "band_gap": 1.4}, {"color": "Copper-Red", "formula": "Zr1S3", "band_gap": 2.17}, {"color": "Dark Red", "formula": "Cd1P2", "band_gap": 2.15}, {"color": "Red", "formula": "Hg1I2", "band_gap": 2.29}, {"color": "Red", "formula": "Si2Te3", "band_gap": 2.0}, {"color": "Orange", "formula": "Hg1I2", "band_gap": 2.35}, {"color": "Brown", "formula": "Mg3As2", "band_gap": 2.55}, {"color": "Orange", "formula": "Sb1I3", "band_gap": 2.49}, {"color": "Black", "formula": "Sn1O2", "band_gap": 2.7}, {"color": "Red", "formula": "Pb1O1", "band_gap": 3.18}, {"color": "White", "formula": "Ga2O3", "band_gap": 4.4}, {"color": "Amber", "formula": "Ge1S2", "band_gap": 3.54}]